n -t 0 -s 0 -S DLABEL -l "Source" -L ""
n -t 0 -s 2 -S DLABEL -l "TCPSink" -L ""
V -t * -v 1.0a5 -a 0
A -t * -n 1 -p 0 -o 0x7fffffff -c 30 -a 1
A -t * -h 1 -m 1073741823 -s 0
c -t * -i 1 -n blue
n -t * -a 0 -s 0 -S UP -v circle -c black -i black
n -t * -a 1 -s 1 -S UP -v circle -c black -i black
n -t * -a 2 -s 2 -S UP -v circle -c black -i black
l -t * -s 0 -d 1 -S UP -r 1000000 -D 0.01 -c black -o right
l -t * -s 1 -d 2 -S UP -r 1000000 -D 0 -c black -o right
+ -t 0 -s 0 -d 1 -p tcp -e 40 -c 1 -i 0 -a 1 -x {0.0 2.0 0 ------- null}
- -t 0 -s 0 -d 1 -p tcp -e 40 -c 1 -i 0 -a 1 -x {0.0 2.0 0 ------- null}
h -t 0 -s 0 -d 1 -p tcp -e 40 -c 1 -i 0 -a 1 -x {0.0 2.0 -1 ------- null}
r -t 0.01032 -s 0 -d 1 -p tcp -e 40 -c 1 -i 0 -a 1 -x {0.0 2.0 0 ------- null}
+ -t 0.01032 -s 1 -d 2 -p tcp -e 40 -c 1 -i 0 -a 1 -x {0.0 2.0 0 ------- null}
- -t 0.01032 -s 1 -d 2 -p tcp -e 40 -c 1 -i 0 -a 1 -x {0.0 2.0 0 ------- null}
h -t 0.01032 -s 1 -d 2 -p tcp -e 40 -c 1 -i 0 -a 1 -x {0.0 2.0 -1 ------- null}
r -t 0.01064 -s 1 -d 2 -p tcp -e 40 -c 1 -i 0 -a 1 -x {0.0 2.0 0 ------- null}
+ -t 0.01064 -s 2 -d 1 -p ack -e 40 -c 1 -i 1 -a 1 -x {2.0 0.0 0 ------- null}
- -t 0.01064 -s 2 -d 1 -p ack -e 40 -c 1 -i 1 -a 1 -x {2.0 0.0 0 ------- null}
h -t 0.01064 -s 2 -d 1 -p ack -e 40 -c 1 -i 1 -a 1 -x {2.0 0.0 -1 ------- null}
r -t 0.01096 -s 2 -d 1 -p ack -e 40 -c 1 -i 1 -a 1 -x {2.0 0.0 0 ------- null}
+ -t 0.01096 -s 1 -d 0 -p ack -e 40 -c 1 -i 1 -a 1 -x {2.0 0.0 0 ------- null}
- -t 0.01096 -s 1 -d 0 -p ack -e 40 -c 1 -i 1 -a 1 -x {2.0 0.0 0 ------- null}
h -t 0.01096 -s 1 -d 0 -p ack -e 40 -c 1 -i 1 -a 1 -x {2.0 0.0 -1 ------- null}
r -t 0.02128 -s 1 -d 0 -p ack -e 40 -c 1 -i 1 -a 1 -x {2.0 0.0 0 ------- null}
+ -t 0.02128 -s 0 -d 1 -p tcp -e 1040 -c 1 -i 2 -a 1 -x {0.0 2.0 1 ------- null}
- -t 0.02128 -s 0 -d 1 -p tcp -e 1040 -c 1 -i 2 -a 1 -x {0.0 2.0 1 ------- null}
h -t 0.02128 -s 0 -d 1 -p tcp -e 1040 -c 1 -i 2 -a 1 -x {0.0 2.0 -1 ------- null}
+ -t 0.02128 -s 0 -d 1 -p tcp -e 1040 -c 1 -i 3 -a 1 -x {0.0 2.0 2 ------- null}
- -t 0.0296 -s 0 -d 1 -p tcp -e 1040 -c 1 -i 3 -a 1 -x {0.0 2.0 2 ------- null}
h -t 0.0296 -s 0 -d 1 -p tcp -e 1040 -c 1 -i 3 -a 1 -x {0.0 2.0 -1 ------- null}
r -t 0.0396 -s 0 -d 1 -p tcp -e 1040 -c 1 -i 2 -a 1 -x {0.0 2.0 1 ------- null}
+ -t 0.0396 -s 1 -d 2 -p tcp -e 1040 -c 1 -i 2 -a 1 -x {0.0 2.0 1 ------- null}
- -t 0.0396 -s 1 -d 2 -p tcp -e 1040 -c 1 -i 2 -a 1 -x {0.0 2.0 1 ------- null}
h -t 0.0396 -s 1 -d 2 -p tcp -e 1040 -c 1 -i 2 -a 1 -x {0.0 2.0 -1 ------- null}
r -t 0.04792 -s 0 -d 1 -p tcp -e 1040 -c 1 -i 3 -a 1 -x {0.0 2.0 2 ------- null}
+ -t 0.04792 -s 1 -d 2 -p tcp -e 1040 -c 1 -i 3 -a 1 -x {0.0 2.0 2 ------- null}
r -t 0.04792 -s 1 -d 2 -p tcp -e 1040 -c 1 -i 2 -a 1 -x {0.0 2.0 1 ------- null}
+ -t 0.04792 -s 2 -d 1 -p ack -e 40 -c 1 -i 4 -a 1 -x {2.0 0.0 1 ------- null}
- -t 0.04792 -s 2 -d 1 -p ack -e 40 -c 1 -i 4 -a 1 -x {2.0 0.0 1 ------- null}
h -t 0.04792 -s 2 -d 1 -p ack -e 40 -c 1 -i 4 -a 1 -x {2.0 0.0 -1 ------- null}
- -t 0.04792 -s 1 -d 2 -p tcp -e 1040 -c 1 -i 3 -a 1 -x {0.0 2.0 2 ------- null}
h -t 0.04792 -s 1 -d 2 -p tcp -e 1040 -c 1 -i 3 -a 1 -x {0.0 2.0 -1 ------- null}
r -t 0.04824 -s 2 -d 1 -p ack -e 40 -c 1 -i 4 -a 1 -x {2.0 0.0 1 ------- null}
+ -t 0.04824 -s 1 -d 0 -p ack -e 40 -c 1 -i 4 -a 1 -x {2.0 0.0 1 ------- null}
- -t 0.04824 -s 1 -d 0 -p ack -e 40 -c 1 -i 4 -a 1 -x {2.0 0.0 1 ------- null}
h -t 0.04824 -s 1 -d 0 -p ack -e 40 -c 1 -i 4 -a 1 -x {2.0 0.0 -1 ------- null}
r -t 0.05624 -s 1 -d 2 -p tcp -e 1040 -c 1 -i 3 -a 1 -x {0.0 2.0 2 ------- null}
+ -t 0.05624 -s 2 -d 1 -p ack -e 40 -c 1 -i 5 -a 1 -x {2.0 0.0 2 ------- null}
- -t 0.05624 -s 2 -d 1 -p ack -e 40 -c 1 -i 5 -a 1 -x {2.0 0.0 2 ------- null}
h -t 0.05624 -s 2 -d 1 -p ack -e 40 -c 1 -i 5 -a 1 -x {2.0 0.0 -1 ------- null}
r -t 0.05656 -s 2 -d 1 -p ack -e 40 -c 1 -i 5 -a 1 -x {2.0 0.0 2 ------- null}
+ -t 0.05656 -s 1 -d 0 -p ack -e 40 -c 1 -i 5 -a 1 -x {2.0 0.0 2 ------- null}
- -t 0.05656 -s 1 -d 0 -p ack -e 40 -c 1 -i 5 -a 1 -x {2.0 0.0 2 ------- null}
h -t 0.05656 -s 1 -d 0 -p ack -e 40 -c 1 -i 5 -a 1 -x {2.0 0.0 -1 ------- null}
r -t 0.05856 -s 1 -d 0 -p ack -e 40 -c 1 -i 4 -a 1 -x {2.0 0.0 1 ------- null}
+ -t 0.05856 -s 0 -d 1 -p tcp -e 1040 -c 1 -i 6 -a 1 -x {0.0 2.0 3 ------- null}
- -t 0.05856 -s 0 -d 1 -p tcp -e 1040 -c 1 -i 6 -a 1 -x {0.0 2.0 3 ------- null}
h -t 0.05856 -s 0 -d 1 -p tcp -e 1040 -c 1 -i 6 -a 1 -x {0.0 2.0 -1 ------- null}
+ -t 0.05856 -s 0 -d 1 -p tcp -e 1040 -c 1 -i 7 -a 1 -x {0.0 2.0 4 ------- null}
r -t 0.06688 -s 1 -d 0 -p ack -e 40 -c 1 -i 5 -a 1 -x {2.0 0.0 2 ------- null}
+ -t 0.06688 -s 0 -d 1 -p tcp -e 1040 -c 1 -i 8 -a 1 -x {0.0 2.0 5 ------- null}
+ -t 0.06688 -s 0 -d 1 -p tcp -e 1040 -c 1 -i 9 -a 1 -x {0.0 2.0 6 ------- null}
- -t 0.06688 -s 0 -d 1 -p tcp -e 1040 -c 1 -i 7 -a 1 -x {0.0 2.0 4 ------- null}
h -t 0.06688 -s 0 -d 1 -p tcp -e 1040 -c 1 -i 7 -a 1 -x {0.0 2.0 -1 ------- null}
- -t 0.0752 -s 0 -d 1 -p tcp -e 1040 -c 1 -i 8 -a 1 -x {0.0 2.0 5 ------- null}
h -t 0.0752 -s 0 -d 1 -p tcp -e 1040 -c 1 -i 8 -a 1 -x {0.0 2.0 -1 ------- null}
r -t 0.07688 -s 0 -d 1 -p tcp -e 1040 -c 1 -i 6 -a 1 -x {0.0 2.0 3 ------- null}
+ -t 0.07688 -s 1 -d 2 -p tcp -e 1040 -c 1 -i 6 -a 1 -x {0.0 2.0 3 ------- null}
- -t 0.07688 -s 1 -d 2 -p tcp -e 1040 -c 1 -i 6 -a 1 -x {0.0 2.0 3 ------- null}
h -t 0.07688 -s 1 -d 2 -p tcp -e 1040 -c 1 -i 6 -a 1 -x {0.0 2.0 -1 ------- null}
- -t 0.08352 -s 0 -d 1 -p tcp -e 1040 -c 1 -i 9 -a 1 -x {0.0 2.0 6 ------- null}
h -t 0.08352 -s 0 -d 1 -p tcp -e 1040 -c 1 -i 9 -a 1 -x {0.0 2.0 -1 ------- null}
r -t 0.0852 -s 1 -d 2 -p tcp -e 1040 -c 1 -i 6 -a 1 -x {0.0 2.0 3 ------- null}
+ -t 0.0852 -s 2 -d 1 -p ack -e 40 -c 1 -i 10 -a 1 -x {2.0 0.0 3 ------- null}
- -t 0.0852 -s 2 -d 1 -p ack -e 40 -c 1 -i 10 -a 1 -x {2.0 0.0 3 ------- null}
h -t 0.0852 -s 2 -d 1 -p ack -e 40 -c 1 -i 10 -a 1 -x {2.0 0.0 -1 ------- null}
r -t 0.0852 -s 0 -d 1 -p tcp -e 1040 -c 1 -i 7 -a 1 -x {0.0 2.0 4 ------- null}
+ -t 0.0852 -s 1 -d 2 -p tcp -e 1040 -c 1 -i 7 -a 1 -x {0.0 2.0 4 ------- null}
- -t 0.0852 -s 1 -d 2 -p tcp -e 1040 -c 1 -i 7 -a 1 -x {0.0 2.0 4 ------- null}
h -t 0.0852 -s 1 -d 2 -p tcp -e 1040 -c 1 -i 7 -a 1 -x {0.0 2.0 -1 ------- null}
r -t 0.08552 -s 2 -d 1 -p ack -e 40 -c 1 -i 10 -a 1 -x {2.0 0.0 3 ------- null}
+ -t 0.08552 -s 1 -d 0 -p ack -e 40 -c 1 -i 10 -a 1 -x {2.0 0.0 3 ------- null}
- -t 0.08552 -s 1 -d 0 -p ack -e 40 -c 1 -i 10 -a 1 -x {2.0 0.0 3 ------- null}
h -t 0.08552 -s 1 -d 0 -p ack -e 40 -c 1 -i 10 -a 1 -x {2.0 0.0 -1 ------- null}
r -t 0.09352 -s 0 -d 1 -p tcp -e 1040 -c 1 -i 8 -a 1 -x {0.0 2.0 5 ------- null}
+ -t 0.09352 -s 1 -d 2 -p tcp -e 1040 -c 1 -i 8 -a 1 -x {0.0 2.0 5 ------- null}
r -t 0.09352 -s 1 -d 2 -p tcp -e 1040 -c 1 -i 7 -a 1 -x {0.0 2.0 4 ------- null}
+ -t 0.09352 -s 2 -d 1 -p ack -e 40 -c 1 -i 11 -a 1 -x {2.0 0.0 4 ------- null}
- -t 0.09352 -s 2 -d 1 -p ack -e 40 -c 1 -i 11 -a 1 -x {2.0 0.0 4 ------- null}
h -t 0.09352 -s 2 -d 1 -p ack -e 40 -c 1 -i 11 -a 1 -x {2.0 0.0 -1 ------- null}
- -t 0.09352 -s 1 -d 2 -p tcp -e 1040 -c 1 -i 8 -a 1 -x {0.0 2.0 5 ------- null}
h -t 0.09352 -s 1 -d 2 -p tcp -e 1040 -c 1 -i 8 -a 1 -x {0.0 2.0 -1 ------- null}
r -t 0.09384 -s 2 -d 1 -p ack -e 40 -c 1 -i 11 -a 1 -x {2.0 0.0 4 ------- null}
+ -t 0.09384 -s 1 -d 0 -p ack -e 40 -c 1 -i 11 -a 1 -x {2.0 0.0 4 ------- null}
- -t 0.09384 -s 1 -d 0 -p ack -e 40 -c 1 -i 11 -a 1 -x {2.0 0.0 4 ------- null}
h -t 0.09384 -s 1 -d 0 -p ack -e 40 -c 1 -i 11 -a 1 -x {2.0 0.0 -1 ------- null}
r -t 0.09584 -s 1 -d 0 -p ack -e 40 -c 1 -i 10 -a 1 -x {2.0 0.0 3 ------- null}
+ -t 0.09584 -s 0 -d 1 -p tcp -e 1040 -c 1 -i 12 -a 1 -x {0.0 2.0 7 ------- null}
- -t 0.09584 -s 0 -d 1 -p tcp -e 1040 -c 1 -i 12 -a 1 -x {0.0 2.0 7 ------- null}
h -t 0.09584 -s 0 -d 1 -p tcp -e 1040 -c 1 -i 12 -a 1 -x {0.0 2.0 -1 ------- null}
+ -t 0.09584 -s 0 -d 1 -p tcp -e 1040 -c 1 -i 13 -a 1 -x {0.0 2.0 8 ------- null}
r -t 0.10184 -s 0 -d 1 -p tcp -e 1040 -c 1 -i 9 -a 1 -x {0.0 2.0 6 ------- null}
+ -t 0.10184 -s 1 -d 2 -p tcp -e 1040 -c 1 -i 9 -a 1 -x {0.0 2.0 6 ------- null}
r -t 0.10184 -s 1 -d 2 -p tcp -e 1040 -c 1 -i 8 -a 1 -x {0.0 2.0 5 ------- null}
+ -t 0.10184 -s 2 -d 1 -p ack -e 40 -c 1 -i 14 -a 1 -x {2.0 0.0 5 ------- null}
- -t 0.10184 -s 2 -d 1 -p ack -e 40 -c 1 -i 14 -a 1 -x {2.0 0.0 5 ------- null}
h -t 0.10184 -s 2 -d 1 -p ack -e 40 -c 1 -i 14 -a 1 -x {2.0 0.0 -1 ------- null}
- -t 0.10184 -s 1 -d 2 -p tcp -e 1040 -c 1 -i 9 -a 1 -x {0.0 2.0 6 ------- null}
h -t 0.10184 -s 1 -d 2 -p tcp -e 1040 -c 1 -i 9 -a 1 -x {0.0 2.0 -1 ------- null}
r -t 0.10216 -s 2 -d 1 -p ack -e 40 -c 1 -i 14 -a 1 -x {2.0 0.0 5 ------- null}
+ -t 0.10216 -s 1 -d 0 -p ack -e 40 -c 1 -i 14 -a 1 -x {2.0 0.0 5 ------- null}
- -t 0.10216 -s 1 -d 0 -p ack -e 40 -c 1 -i 14 -a 1 -x {2.0 0.0 5 ------- null}
h -t 0.10216 -s 1 -d 0 -p ack -e 40 -c 1 -i 14 -a 1 -x {2.0 0.0 -1 ------- null}
- -t 0.10416 -s 0 -d 1 -p tcp -e 1040 -c 1 -i 13 -a 1 -x {0.0 2.0 8 ------- null}
h -t 0.10416 -s 0 -d 1 -p tcp -e 1040 -c 1 -i 13 -a 1 -x {0.0 2.0 -1 ------- null}
r -t 0.10416 -s 1 -d 0 -p ack -e 40 -c 1 -i 11 -a 1 -x {2.0 0.0 4 ------- null}
+ -t 0.10416 -s 0 -d 1 -p tcp -e 1040 -c 1 -i 15 -a 1 -x {0.0 2.0 9 ------- null}
+ -t 0.10416 -s 0 -d 1 -p tcp -e 1040 -c 1 -i 16 -a 1 -x {0.0 2.0 10 ------- null}
r -t 0.11016 -s 1 -d 2 -p tcp -e 1040 -c 1 -i 9 -a 1 -x {0.0 2.0 6 ------- null}
+ -t 0.11016 -s 2 -d 1 -p ack -e 40 -c 1 -i 17 -a 1 -x {2.0 0.0 6 ------- null}
- -t 0.11016 -s 2 -d 1 -p ack -e 40 -c 1 -i 17 -a 1 -x {2.0 0.0 6 ------- null}
h -t 0.11016 -s 2 -d 1 -p ack -e 40 -c 1 -i 17 -a 1 -x {2.0 0.0 -1 ------- null}
r -t 0.11048 -s 2 -d 1 -p ack -e 40 -c 1 -i 17 -a 1 -x {2.0 0.0 6 ------- null}
+ -t 0.11048 -s 1 -d 0 -p ack -e 40 -c 1 -i 17 -a 1 -x {2.0 0.0 6 ------- null}
- -t 0.11048 -s 1 -d 0 -p ack -e 40 -c 1 -i 17 -a 1 -x {2.0 0.0 6 ------- null}
h -t 0.11048 -s 1 -d 0 -p ack -e 40 -c 1 -i 17 -a 1 -x {2.0 0.0 -1 ------- null}
- -t 0.11248 -s 0 -d 1 -p tcp -e 1040 -c 1 -i 15 -a 1 -x {0.0 2.0 9 ------- null}
h -t 0.11248 -s 0 -d 1 -p tcp -e 1040 -c 1 -i 15 -a 1 -x {0.0 2.0 -1 ------- null}
r -t 0.11248 -s 1 -d 0 -p ack -e 40 -c 1 -i 14 -a 1 -x {2.0 0.0 5 ------- null}
+ -t 0.11248 -s 0 -d 1 -p tcp -e 1040 -c 1 -i 18 -a 1 -x {0.0 2.0 11 ------- null}
+ -t 0.11248 -s 0 -d 1 -p tcp -e 1040 -c 1 -i 19 -a 1 -x {0.0 2.0 12 ------- null}
r -t 0.11416 -s 0 -d 1 -p tcp -e 1040 -c 1 -i 12 -a 1 -x {0.0 2.0 7 ------- null}
+ -t 0.11416 -s 1 -d 2 -p tcp -e 1040 -c 1 -i 12 -a 1 -x {0.0 2.0 7 ------- null}
- -t 0.11416 -s 1 -d 2 -p tcp -e 1040 -c 1 -i 12 -a 1 -x {0.0 2.0 7 ------- null}
h -t 0.11416 -s 1 -d 2 -p tcp -e 1040 -c 1 -i 12 -a 1 -x {0.0 2.0 -1 ------- null}
- -t 0.1208 -s 0 -d 1 -p tcp -e 1040 -c 1 -i 16 -a 1 -x {0.0 2.0 10 ------- null}
h -t 0.1208 -s 0 -d 1 -p tcp -e 1040 -c 1 -i 16 -a 1 -x {0.0 2.0 -1 ------- null}
r -t 0.1208 -s 1 -d 0 -p ack -e 40 -c 1 -i 17 -a 1 -x {2.0 0.0 6 ------- null}
+ -t 0.1208 -s 0 -d 1 -p tcp -e 1040 -c 1 -i 20 -a 1 -x {0.0 2.0 13 ------- null}
+ -t 0.1208 -s 0 -d 1 -p tcp -e 1040 -c 1 -i 21 -a 1 -x {0.0 2.0 14 ------- null}
r -t 0.12248 -s 0 -d 1 -p tcp -e 1040 -c 1 -i 13 -a 1 -x {0.0 2.0 8 ------- null}
+ -t 0.12248 -s 1 -d 2 -p tcp -e 1040 -c 1 -i 13 -a 1 -x {0.0 2.0 8 ------- null}
r -t 0.12248 -s 1 -d 2 -p tcp -e 1040 -c 1 -i 12 -a 1 -x {0.0 2.0 7 ------- null}
+ -t 0.12248 -s 2 -d 1 -p ack -e 40 -c 1 -i 22 -a 1 -x {2.0 0.0 7 ------- null}
- -t 0.12248 -s 2 -d 1 -p ack -e 40 -c 1 -i 22 -a 1 -x {2.0 0.0 7 ------- null}
h -t 0.12248 -s 2 -d 1 -p ack -e 40 -c 1 -i 22 -a 1 -x {2.0 0.0 -1 ------- null}
- -t 0.12248 -s 1 -d 2 -p tcp -e 1040 -c 1 -i 13 -a 1 -x {0.0 2.0 8 ------- null}
h -t 0.12248 -s 1 -d 2 -p tcp -e 1040 -c 1 -i 13 -a 1 -x {0.0 2.0 -1 ------- null}
r -t 0.1228 -s 2 -d 1 -p ack -e 40 -c 1 -i 22 -a 1 -x {2.0 0.0 7 ------- null}
+ -t 0.1228 -s 1 -d 0 -p ack -e 40 -c 1 -i 22 -a 1 -x {2.0 0.0 7 ------- null}
- -t 0.1228 -s 1 -d 0 -p ack -e 40 -c 1 -i 22 -a 1 -x {2.0 0.0 7 ------- null}
h -t 0.1228 -s 1 -d 0 -p ack -e 40 -c 1 -i 22 -a 1 -x {2.0 0.0 -1 ------- null}
- -t 0.12912 -s 0 -d 1 -p tcp -e 1040 -c 1 -i 18 -a 1 -x {0.0 2.0 11 ------- null}
h -t 0.12912 -s 0 -d 1 -p tcp -e 1040 -c 1 -i 18 -a 1 -x {0.0 2.0 -1 ------- null}
r -t 0.1308 -s 0 -d 1 -p tcp -e 1040 -c 1 -i 15 -a 1 -x {0.0 2.0 9 ------- null}
+ -t 0.1308 -s 1 -d 2 -p tcp -e 1040 -c 1 -i 15 -a 1 -x {0.0 2.0 9 ------- null}
r -t 0.1308 -s 1 -d 2 -p tcp -e 1040 -c 1 -i 13 -a 1 -x {0.0 2.0 8 ------- null}
+ -t 0.1308 -s 2 -d 1 -p ack -e 40 -c 1 -i 23 -a 1 -x {2.0 0.0 8 ------- null}
- -t 0.1308 -s 2 -d 1 -p ack -e 40 -c 1 -i 23 -a 1 -x {2.0 0.0 8 ------- null}
h -t 0.1308 -s 2 -d 1 -p ack -e 40 -c 1 -i 23 -a 1 -x {2.0 0.0 -1 ------- null}
- -t 0.1308 -s 1 -d 2 -p tcp -e 1040 -c 1 -i 15 -a 1 -x {0.0 2.0 9 ------- null}
h -t 0.1308 -s 1 -d 2 -p tcp -e 1040 -c 1 -i 15 -a 1 -x {0.0 2.0 -1 ------- null}
r -t 0.13112 -s 2 -d 1 -p ack -e 40 -c 1 -i 23 -a 1 -x {2.0 0.0 8 ------- null}
+ -t 0.13112 -s 1 -d 0 -p ack -e 40 -c 1 -i 23 -a 1 -x {2.0 0.0 8 ------- null}
- -t 0.13112 -s 1 -d 0 -p ack -e 40 -c 1 -i 23 -a 1 -x {2.0 0.0 8 ------- null}
h -t 0.13112 -s 1 -d 0 -p ack -e 40 -c 1 -i 23 -a 1 -x {2.0 0.0 -1 ------- null}
r -t 0.13312 -s 1 -d 0 -p ack -e 40 -c 1 -i 22 -a 1 -x {2.0 0.0 7 ------- null}
+ -t 0.13312 -s 0 -d 1 -p tcp -e 1040 -c 1 -i 24 -a 1 -x {0.0 2.0 15 ------- null}
+ -t 0.13312 -s 0 -d 1 -p tcp -e 1040 -c 1 -i 25 -a 1 -x {0.0 2.0 16 ------- null}
- -t 0.13744 -s 0 -d 1 -p tcp -e 1040 -c 1 -i 19 -a 1 -x {0.0 2.0 12 ------- null}
h -t 0.13744 -s 0 -d 1 -p tcp -e 1040 -c 1 -i 19 -a 1 -x {0.0 2.0 -1 ------- null}
r -t 0.13912 -s 0 -d 1 -p tcp -e 1040 -c 1 -i 16 -a 1 -x {0.0 2.0 10 ------- null}
+ -t 0.13912 -s 1 -d 2 -p tcp -e 1040 -c 1 -i 16 -a 1 -x {0.0 2.0 10 ------- null}
r -t 0.13912 -s 1 -d 2 -p tcp -e 1040 -c 1 -i 15 -a 1 -x {0.0 2.0 9 ------- null}
+ -t 0.13912 -s 2 -d 1 -p ack -e 40 -c 1 -i 26 -a 1 -x {2.0 0.0 9 ------- null}
- -t 0.13912 -s 2 -d 1 -p ack -e 40 -c 1 -i 26 -a 1 -x {2.0 0.0 9 ------- null}
h -t 0.13912 -s 2 -d 1 -p ack -e 40 -c 1 -i 26 -a 1 -x {2.0 0.0 -1 ------- null}
- -t 0.13912 -s 1 -d 2 -p tcp -e 1040 -c 1 -i 16 -a 1 -x {0.0 2.0 10 ------- null}
h -t 0.13912 -s 1 -d 2 -p tcp -e 1040 -c 1 -i 16 -a 1 -x {0.0 2.0 -1 ------- null}
r -t 0.13944 -s 2 -d 1 -p ack -e 40 -c 1 -i 26 -a 1 -x {2.0 0.0 9 ------- null}
+ -t 0.13944 -s 1 -d 0 -p ack -e 40 -c 1 -i 26 -a 1 -x {2.0 0.0 9 ------- null}
- -t 0.13944 -s 1 -d 0 -p ack -e 40 -c 1 -i 26 -a 1 -x {2.0 0.0 9 ------- null}
h -t 0.13944 -s 1 -d 0 -p ack -e 40 -c 1 -i 26 -a 1 -x {2.0 0.0 -1 ------- null}
r -t 0.14144 -s 1 -d 0 -p ack -e 40 -c 1 -i 23 -a 1 -x {2.0 0.0 8 ------- null}
+ -t 0.14144 -s 0 -d 1 -p tcp -e 1040 -c 1 -i 27 -a 1 -x {0.0 2.0 17 ------- null}
+ -t 0.14144 -s 0 -d 1 -p tcp -e 1040 -c 1 -i 28 -a 1 -x {0.0 2.0 18 ------- null}
- -t 0.14576 -s 0 -d 1 -p tcp -e 1040 -c 1 -i 20 -a 1 -x {0.0 2.0 13 ------- null}
h -t 0.14576 -s 0 -d 1 -p tcp -e 1040 -c 1 -i 20 -a 1 -x {0.0 2.0 -1 ------- null}
r -t 0.14744 -s 0 -d 1 -p tcp -e 1040 -c 1 -i 18 -a 1 -x {0.0 2.0 11 ------- null}
+ -t 0.14744 -s 1 -d 2 -p tcp -e 1040 -c 1 -i 18 -a 1 -x {0.0 2.0 11 ------- null}
r -t 0.14744 -s 1 -d 2 -p tcp -e 1040 -c 1 -i 16 -a 1 -x {0.0 2.0 10 ------- null}
+ -t 0.14744 -s 2 -d 1 -p ack -e 40 -c 1 -i 29 -a 1 -x {2.0 0.0 10 ------- null}
- -t 0.14744 -s 2 -d 1 -p ack -e 40 -c 1 -i 29 -a 1 -x {2.0 0.0 10 ------- null}
h -t 0.14744 -s 2 -d 1 -p ack -e 40 -c 1 -i 29 -a 1 -x {2.0 0.0 -1 ------- null}
- -t 0.14744 -s 1 -d 2 -p tcp -e 1040 -c 1 -i 18 -a 1 -x {0.0 2.0 11 ------- null}
h -t 0.14744 -s 1 -d 2 -p tcp -e 1040 -c 1 -i 18 -a 1 -x {0.0 2.0 -1 ------- null}
r -t 0.14776 -s 2 -d 1 -p ack -e 40 -c 1 -i 29 -a 1 -x {2.0 0.0 10 ------- null}
+ -t 0.14776 -s 1 -d 0 -p ack -e 40 -c 1 -i 29 -a 1 -x {2.0 0.0 10 ------- null}
- -t 0.14776 -s 1 -d 0 -p ack -e 40 -c 1 -i 29 -a 1 -x {2.0 0.0 10 ------- null}
h -t 0.14776 -s 1 -d 0 -p ack -e 40 -c 1 -i 29 -a 1 -x {2.0 0.0 -1 ------- null}
r -t 0.14976 -s 1 -d 0 -p ack -e 40 -c 1 -i 26 -a 1 -x {2.0 0.0 9 ------- null}
+ -t 0.14976 -s 0 -d 1 -p tcp -e 1040 -c 1 -i 30 -a 1 -x {0.0 2.0 19 ------- null}
+ -t 0.14976 -s 0 -d 1 -p tcp -e 1040 -c 1 -i 31 -a 1 -x {0.0 2.0 20 ------- null}
- -t 0.15408 -s 0 -d 1 -p tcp -e 1040 -c 1 -i 21 -a 1 -x {0.0 2.0 14 ------- null}
h -t 0.15408 -s 0 -d 1 -p tcp -e 1040 -c 1 -i 21 -a 1 -x {0.0 2.0 -1 ------- null}
r -t 0.15576 -s 0 -d 1 -p tcp -e 1040 -c 1 -i 19 -a 1 -x {0.0 2.0 12 ------- null}
+ -t 0.15576 -s 1 -d 2 -p tcp -e 1040 -c 1 -i 19 -a 1 -x {0.0 2.0 12 ------- null}
r -t 0.15576 -s 1 -d 2 -p tcp -e 1040 -c 1 -i 18 -a 1 -x {0.0 2.0 11 ------- null}
+ -t 0.15576 -s 2 -d 1 -p ack -e 40 -c 1 -i 32 -a 1 -x {2.0 0.0 11 ------- null}
- -t 0.15576 -s 2 -d 1 -p ack -e 40 -c 1 -i 32 -a 1 -x {2.0 0.0 11 ------- null}
h -t 0.15576 -s 2 -d 1 -p ack -e 40 -c 1 -i 32 -a 1 -x {2.0 0.0 -1 ------- null}
- -t 0.15576 -s 1 -d 2 -p tcp -e 1040 -c 1 -i 19 -a 1 -x {0.0 2.0 12 ------- null}
h -t 0.15576 -s 1 -d 2 -p tcp -e 1040 -c 1 -i 19 -a 1 -x {0.0 2.0 -1 ------- null}
r -t 0.15608 -s 2 -d 1 -p ack -e 40 -c 1 -i 32 -a 1 -x {2.0 0.0 11 ------- null}
+ -t 0.15608 -s 1 -d 0 -p ack -e 40 -c 1 -i 32 -a 1 -x {2.0 0.0 11 ------- null}
- -t 0.15608 -s 1 -d 0 -p ack -e 40 -c 1 -i 32 -a 1 -x {2.0 0.0 11 ------- null}
h -t 0.15608 -s 1 -d 0 -p ack -e 40 -c 1 -i 32 -a 1 -x {2.0 0.0 -1 ------- null}
r -t 0.15808 -s 1 -d 0 -p ack -e 40 -c 1 -i 29 -a 1 -x {2.0 0.0 10 ------- null}
+ -t 0.15808 -s 0 -d 1 -p tcp -e 1040 -c 1 -i 33 -a 1 -x {0.0 2.0 21 ------- null}
+ -t 0.15808 -s 0 -d 1 -p tcp -e 1040 -c 1 -i 34 -a 1 -x {0.0 2.0 22 ------- null}
- -t 0.1624 -s 0 -d 1 -p tcp -e 1040 -c 1 -i 24 -a 1 -x {0.0 2.0 15 ------- null}
h -t 0.1624 -s 0 -d 1 -p tcp -e 1040 -c 1 -i 24 -a 1 -x {0.0 2.0 -1 ------- null}
r -t 0.16408 -s 0 -d 1 -p tcp -e 1040 -c 1 -i 20 -a 1 -x {0.0 2.0 13 ------- null}
+ -t 0.16408 -s 1 -d 2 -p tcp -e 1040 -c 1 -i 20 -a 1 -x {0.0 2.0 13 ------- null}
r -t 0.16408 -s 1 -d 2 -p tcp -e 1040 -c 1 -i 19 -a 1 -x {0.0 2.0 12 ------- null}
+ -t 0.16408 -s 2 -d 1 -p ack -e 40 -c 1 -i 35 -a 1 -x {2.0 0.0 12 ------- null}
- -t 0.16408 -s 2 -d 1 -p ack -e 40 -c 1 -i 35 -a 1 -x {2.0 0.0 12 ------- null}
h -t 0.16408 -s 2 -d 1 -p ack -e 40 -c 1 -i 35 -a 1 -x {2.0 0.0 -1 ------- null}
- -t 0.16408 -s 1 -d 2 -p tcp -e 1040 -c 1 -i 20 -a 1 -x {0.0 2.0 13 ------- null}
h -t 0.16408 -s 1 -d 2 -p tcp -e 1040 -c 1 -i 20 -a 1 -x {0.0 2.0 -1 ------- null}
r -t 0.1644 -s 2 -d 1 -p ack -e 40 -c 1 -i 35 -a 1 -x {2.0 0.0 12 ------- null}
+ -t 0.1644 -s 1 -d 0 -p ack -e 40 -c 1 -i 35 -a 1 -x {2.0 0.0 12 ------- null}
- -t 0.1644 -s 1 -d 0 -p ack -e 40 -c 1 -i 35 -a 1 -x {2.0 0.0 12 ------- null}
h -t 0.1644 -s 1 -d 0 -p ack -e 40 -c 1 -i 35 -a 1 -x {2.0 0.0 -1 ------- null}
r -t 0.1664 -s 1 -d 0 -p ack -e 40 -c 1 -i 32 -a 1 -x {2.0 0.0 11 ------- null}
+ -t 0.1664 -s 0 -d 1 -p tcp -e 1040 -c 1 -i 36 -a 1 -x {0.0 2.0 23 ------- null}
+ -t 0.1664 -s 0 -d 1 -p tcp -e 1040 -c 1 -i 37 -a 1 -x {0.0 2.0 24 ------- null}
- -t 0.17072 -s 0 -d 1 -p tcp -e 1040 -c 1 -i 25 -a 1 -x {0.0 2.0 16 ------- null}
h -t 0.17072 -s 0 -d 1 -p tcp -e 1040 -c 1 -i 25 -a 1 -x {0.0 2.0 -1 ------- null}
r -t 0.1724 -s 0 -d 1 -p tcp -e 1040 -c 1 -i 21 -a 1 -x {0.0 2.0 14 ------- null}
+ -t 0.1724 -s 1 -d 2 -p tcp -e 1040 -c 1 -i 21 -a 1 -x {0.0 2.0 14 ------- null}
r -t 0.1724 -s 1 -d 2 -p tcp -e 1040 -c 1 -i 20 -a 1 -x {0.0 2.0 13 ------- null}
+ -t 0.1724 -s 2 -d 1 -p ack -e 40 -c 1 -i 38 -a 1 -x {2.0 0.0 13 ------- null}
- -t 0.1724 -s 2 -d 1 -p ack -e 40 -c 1 -i 38 -a 1 -x {2.0 0.0 13 ------- null}
h -t 0.1724 -s 2 -d 1 -p ack -e 40 -c 1 -i 38 -a 1 -x {2.0 0.0 -1 ------- null}
- -t 0.1724 -s 1 -d 2 -p tcp -e 1040 -c 1 -i 21 -a 1 -x {0.0 2.0 14 ------- null}
h -t 0.1724 -s 1 -d 2 -p tcp -e 1040 -c 1 -i 21 -a 1 -x {0.0 2.0 -1 ------- null}
r -t 0.17272 -s 2 -d 1 -p ack -e 40 -c 1 -i 38 -a 1 -x {2.0 0.0 13 ------- null}
+ -t 0.17272 -s 1 -d 0 -p ack -e 40 -c 1 -i 38 -a 1 -x {2.0 0.0 13 ------- null}
- -t 0.17272 -s 1 -d 0 -p ack -e 40 -c 1 -i 38 -a 1 -x {2.0 0.0 13 ------- null}
h -t 0.17272 -s 1 -d 0 -p ack -e 40 -c 1 -i 38 -a 1 -x {2.0 0.0 -1 ------- null}
r -t 0.17472 -s 1 -d 0 -p ack -e 40 -c 1 -i 35 -a 1 -x {2.0 0.0 12 ------- null}
+ -t 0.17472 -s 0 -d 1 -p tcp -e 1040 -c 1 -i 39 -a 1 -x {0.0 2.0 25 ------- null}
+ -t 0.17472 -s 0 -d 1 -p tcp -e 1040 -c 1 -i 40 -a 1 -x {0.0 2.0 26 ------- null}
d -t 0.17472 -s 0 -d 1 -p tcp -e 1040 -c 1 -i 40 -a 1 -x {0.0 2.0 26 ------- null}
- -t 0.17904 -s 0 -d 1 -p tcp -e 1040 -c 1 -i 27 -a 1 -x {0.0 2.0 17 ------- null}
h -t 0.17904 -s 0 -d 1 -p tcp -e 1040 -c 1 -i 27 -a 1 -x {0.0 2.0 -1 ------- null}
r -t 0.18072 -s 0 -d 1 -p tcp -e 1040 -c 1 -i 24 -a 1 -x {0.0 2.0 15 ------- null}
+ -t 0.18072 -s 1 -d 2 -p tcp -e 1040 -c 1 -i 24 -a 1 -x {0.0 2.0 15 ------- null}
r -t 0.18072 -s 1 -d 2 -p tcp -e 1040 -c 1 -i 21 -a 1 -x {0.0 2.0 14 ------- null}
+ -t 0.18072 -s 2 -d 1 -p ack -e 40 -c 1 -i 41 -a 1 -x {2.0 0.0 14 ------- null}
- -t 0.18072 -s 2 -d 1 -p ack -e 40 -c 1 -i 41 -a 1 -x {2.0 0.0 14 ------- null}
h -t 0.18072 -s 2 -d 1 -p ack -e 40 -c 1 -i 41 -a 1 -x {2.0 0.0 -1 ------- null}
- -t 0.18072 -s 1 -d 2 -p tcp -e 1040 -c 1 -i 24 -a 1 -x {0.0 2.0 15 ------- null}
h -t 0.18072 -s 1 -d 2 -p tcp -e 1040 -c 1 -i 24 -a 1 -x {0.0 2.0 -1 ------- null}
r -t 0.18104 -s 2 -d 1 -p ack -e 40 -c 1 -i 41 -a 1 -x {2.0 0.0 14 ------- null}
+ -t 0.18104 -s 1 -d 0 -p ack -e 40 -c 1 -i 41 -a 1 -x {2.0 0.0 14 ------- null}
- -t 0.18104 -s 1 -d 0 -p ack -e 40 -c 1 -i 41 -a 1 -x {2.0 0.0 14 ------- null}
h -t 0.18104 -s 1 -d 0 -p ack -e 40 -c 1 -i 41 -a 1 -x {2.0 0.0 -1 ------- null}
r -t 0.18304 -s 1 -d 0 -p ack -e 40 -c 1 -i 38 -a 1 -x {2.0 0.0 13 ------- null}
+ -t 0.18304 -s 0 -d 1 -p tcp -e 1040 -c 1 -i 42 -a 1 -x {0.0 2.0 27 ------- null}
+ -t 0.18304 -s 0 -d 1 -p tcp -e 1040 -c 1 -i 43 -a 1 -x {0.0 2.0 28 ------- null}
d -t 0.18304 -s 0 -d 1 -p tcp -e 1040 -c 1 -i 43 -a 1 -x {0.0 2.0 28 ------- null}
- -t 0.18736 -s 0 -d 1 -p tcp -e 1040 -c 1 -i 28 -a 1 -x {0.0 2.0 18 ------- null}
h -t 0.18736 -s 0 -d 1 -p tcp -e 1040 -c 1 -i 28 -a 1 -x {0.0 2.0 -1 ------- null}
r -t 0.18904 -s 0 -d 1 -p tcp -e 1040 -c 1 -i 25 -a 1 -x {0.0 2.0 16 ------- null}
+ -t 0.18904 -s 1 -d 2 -p tcp -e 1040 -c 1 -i 25 -a 1 -x {0.0 2.0 16 ------- null}
r -t 0.18904 -s 1 -d 2 -p tcp -e 1040 -c 1 -i 24 -a 1 -x {0.0 2.0 15 ------- null}
+ -t 0.18904 -s 2 -d 1 -p ack -e 40 -c 1 -i 44 -a 1 -x {2.0 0.0 15 ------- null}
- -t 0.18904 -s 2 -d 1 -p ack -e 40 -c 1 -i 44 -a 1 -x {2.0 0.0 15 ------- null}
h -t 0.18904 -s 2 -d 1 -p ack -e 40 -c 1 -i 44 -a 1 -x {2.0 0.0 -1 ------- null}
- -t 0.18904 -s 1 -d 2 -p tcp -e 1040 -c 1 -i 25 -a 1 -x {0.0 2.0 16 ------- null}
h -t 0.18904 -s 1 -d 2 -p tcp -e 1040 -c 1 -i 25 -a 1 -x {0.0 2.0 -1 ------- null}
r -t 0.18936 -s 2 -d 1 -p ack -e 40 -c 1 -i 44 -a 1 -x {2.0 0.0 15 ------- null}
+ -t 0.18936 -s 1 -d 0 -p ack -e 40 -c 1 -i 44 -a 1 -x {2.0 0.0 15 ------- null}
- -t 0.18936 -s 1 -d 0 -p ack -e 40 -c 1 -i 44 -a 1 -x {2.0 0.0 15 ------- null}
h -t 0.18936 -s 1 -d 0 -p ack -e 40 -c 1 -i 44 -a 1 -x {2.0 0.0 -1 ------- null}
r -t 0.19136 -s 1 -d 0 -p ack -e 40 -c 1 -i 41 -a 1 -x {2.0 0.0 14 ------- null}
+ -t 0.19136 -s 0 -d 1 -p tcp -e 1040 -c 1 -i 45 -a 1 -x {0.0 2.0 29 ------- null}
+ -t 0.19136 -s 0 -d 1 -p tcp -e 1040 -c 1 -i 46 -a 1 -x {0.0 2.0 30 ------- null}
d -t 0.19136 -s 0 -d 1 -p tcp -e 1040 -c 1 -i 46 -a 1 -x {0.0 2.0 30 ------- null}
- -t 0.19568 -s 0 -d 1 -p tcp -e 1040 -c 1 -i 30 -a 1 -x {0.0 2.0 19 ------- null}
h -t 0.19568 -s 0 -d 1 -p tcp -e 1040 -c 1 -i 30 -a 1 -x {0.0 2.0 -1 ------- null}
r -t 0.19736 -s 0 -d 1 -p tcp -e 1040 -c 1 -i 27 -a 1 -x {0.0 2.0 17 ------- null}
+ -t 0.19736 -s 1 -d 2 -p tcp -e 1040 -c 1 -i 27 -a 1 -x {0.0 2.0 17 ------- null}
r -t 0.19736 -s 1 -d 2 -p tcp -e 1040 -c 1 -i 25 -a 1 -x {0.0 2.0 16 ------- null}
+ -t 0.19736 -s 2 -d 1 -p ack -e 40 -c 1 -i 47 -a 1 -x {2.0 0.0 16 ------- null}
- -t 0.19736 -s 2 -d 1 -p ack -e 40 -c 1 -i 47 -a 1 -x {2.0 0.0 16 ------- null}
h -t 0.19736 -s 2 -d 1 -p ack -e 40 -c 1 -i 47 -a 1 -x {2.0 0.0 -1 ------- null}
- -t 0.19736 -s 1 -d 2 -p tcp -e 1040 -c 1 -i 27 -a 1 -x {0.0 2.0 17 ------- null}
h -t 0.19736 -s 1 -d 2 -p tcp -e 1040 -c 1 -i 27 -a 1 -x {0.0 2.0 -1 ------- null}
r -t 0.19768 -s 2 -d 1 -p ack -e 40 -c 1 -i 47 -a 1 -x {2.0 0.0 16 ------- null}
+ -t 0.19768 -s 1 -d 0 -p ack -e 40 -c 1 -i 47 -a 1 -x {2.0 0.0 16 ------- null}
- -t 0.19768 -s 1 -d 0 -p ack -e 40 -c 1 -i 47 -a 1 -x {2.0 0.0 16 ------- null}
h -t 0.19768 -s 1 -d 0 -p ack -e 40 -c 1 -i 47 -a 1 -x {2.0 0.0 -1 ------- null}
r -t 0.19968 -s 1 -d 0 -p ack -e 40 -c 1 -i 44 -a 1 -x {2.0 0.0 15 ------- null}
+ -t 0.19968 -s 0 -d 1 -p tcp -e 1040 -c 1 -i 48 -a 1 -x {0.0 2.0 31 ------- null}
+ -t 0.19968 -s 0 -d 1 -p tcp -e 1040 -c 1 -i 49 -a 1 -x {0.0 2.0 32 ------- null}
d -t 0.19968 -s 0 -d 1 -p tcp -e 1040 -c 1 -i 49 -a 1 -x {0.0 2.0 32 ------- null}
- -t 0.204 -s 0 -d 1 -p tcp -e 1040 -c 1 -i 31 -a 1 -x {0.0 2.0 20 ------- null}
h -t 0.204 -s 0 -d 1 -p tcp -e 1040 -c 1 -i 31 -a 1 -x {0.0 2.0 -1 ------- null}
r -t 0.20568 -s 0 -d 1 -p tcp -e 1040 -c 1 -i 28 -a 1 -x {0.0 2.0 18 ------- null}
+ -t 0.20568 -s 1 -d 2 -p tcp -e 1040 -c 1 -i 28 -a 1 -x {0.0 2.0 18 ------- null}
r -t 0.20568 -s 1 -d 2 -p tcp -e 1040 -c 1 -i 27 -a 1 -x {0.0 2.0 17 ------- null}
+ -t 0.20568 -s 2 -d 1 -p ack -e 40 -c 1 -i 50 -a 1 -x {2.0 0.0 17 ------- null}
- -t 0.20568 -s 2 -d 1 -p ack -e 40 -c 1 -i 50 -a 1 -x {2.0 0.0 17 ------- null}
h -t 0.20568 -s 2 -d 1 -p ack -e 40 -c 1 -i 50 -a 1 -x {2.0 0.0 -1 ------- null}
- -t 0.20568 -s 1 -d 2 -p tcp -e 1040 -c 1 -i 28 -a 1 -x {0.0 2.0 18 ------- null}
h -t 0.20568 -s 1 -d 2 -p tcp -e 1040 -c 1 -i 28 -a 1 -x {0.0 2.0 -1 ------- null}
r -t 0.206 -s 2 -d 1 -p ack -e 40 -c 1 -i 50 -a 1 -x {2.0 0.0 17 ------- null}
+ -t 0.206 -s 1 -d 0 -p ack -e 40 -c 1 -i 50 -a 1 -x {2.0 0.0 17 ------- null}
- -t 0.206 -s 1 -d 0 -p ack -e 40 -c 1 -i 50 -a 1 -x {2.0 0.0 17 ------- null}
h -t 0.206 -s 1 -d 0 -p ack -e 40 -c 1 -i 50 -a 1 -x {2.0 0.0 -1 ------- null}
r -t 0.208 -s 1 -d 0 -p ack -e 40 -c 1 -i 47 -a 1 -x {2.0 0.0 16 ------- null}
+ -t 0.208 -s 0 -d 1 -p tcp -e 1040 -c 1 -i 51 -a 1 -x {0.0 2.0 33 ------- null}
+ -t 0.208 -s 0 -d 1 -p tcp -e 1040 -c 1 -i 52 -a 1 -x {0.0 2.0 34 ------- null}
d -t 0.208 -s 0 -d 1 -p tcp -e 1040 -c 1 -i 52 -a 1 -x {0.0 2.0 34 ------- null}
- -t 0.21232 -s 0 -d 1 -p tcp -e 1040 -c 1 -i 33 -a 1 -x {0.0 2.0 21 ------- null}
h -t 0.21232 -s 0 -d 1 -p tcp -e 1040 -c 1 -i 33 -a 1 -x {0.0 2.0 -1 ------- null}
r -t 0.214 -s 0 -d 1 -p tcp -e 1040 -c 1 -i 30 -a 1 -x {0.0 2.0 19 ------- null}
+ -t 0.214 -s 1 -d 2 -p tcp -e 1040 -c 1 -i 30 -a 1 -x {0.0 2.0 19 ------- null}
r -t 0.214 -s 1 -d 2 -p tcp -e 1040 -c 1 -i 28 -a 1 -x {0.0 2.0 18 ------- null}
+ -t 0.214 -s 2 -d 1 -p ack -e 40 -c 1 -i 53 -a 1 -x {2.0 0.0 18 ------- null}
- -t 0.214 -s 2 -d 1 -p ack -e 40 -c 1 -i 53 -a 1 -x {2.0 0.0 18 ------- null}
h -t 0.214 -s 2 -d 1 -p ack -e 40 -c 1 -i 53 -a 1 -x {2.0 0.0 -1 ------- null}
- -t 0.214 -s 1 -d 2 -p tcp -e 1040 -c 1 -i 30 -a 1 -x {0.0 2.0 19 ------- null}
h -t 0.214 -s 1 -d 2 -p tcp -e 1040 -c 1 -i 30 -a 1 -x {0.0 2.0 -1 ------- null}
r -t 0.21432 -s 2 -d 1 -p ack -e 40 -c 1 -i 53 -a 1 -x {2.0 0.0 18 ------- null}
+ -t 0.21432 -s 1 -d 0 -p ack -e 40 -c 1 -i 53 -a 1 -x {2.0 0.0 18 ------- null}
- -t 0.21432 -s 1 -d 0 -p ack -e 40 -c 1 -i 53 -a 1 -x {2.0 0.0 18 ------- null}
h -t 0.21432 -s 1 -d 0 -p ack -e 40 -c 1 -i 53 -a 1 -x {2.0 0.0 -1 ------- null}
r -t 0.21632 -s 1 -d 0 -p ack -e 40 -c 1 -i 50 -a 1 -x {2.0 0.0 17 ------- null}
+ -t 0.21632 -s 0 -d 1 -p tcp -e 1040 -c 1 -i 54 -a 1 -x {0.0 2.0 35 ------- null}
+ -t 0.21632 -s 0 -d 1 -p tcp -e 1040 -c 1 -i 55 -a 1 -x {0.0 2.0 36 ------- null}
d -t 0.21632 -s 0 -d 1 -p tcp -e 1040 -c 1 -i 55 -a 1 -x {0.0 2.0 36 ------- null}
- -t 0.22064 -s 0 -d 1 -p tcp -e 1040 -c 1 -i 34 -a 1 -x {0.0 2.0 22 ------- null}
h -t 0.22064 -s 0 -d 1 -p tcp -e 1040 -c 1 -i 34 -a 1 -x {0.0 2.0 -1 ------- null}
r -t 0.22232 -s 0 -d 1 -p tcp -e 1040 -c 1 -i 31 -a 1 -x {0.0 2.0 20 ------- null}
+ -t 0.22232 -s 1 -d 2 -p tcp -e 1040 -c 1 -i 31 -a 1 -x {0.0 2.0 20 ------- null}
r -t 0.22232 -s 1 -d 2 -p tcp -e 1040 -c 1 -i 30 -a 1 -x {0.0 2.0 19 ------- null}
+ -t 0.22232 -s 2 -d 1 -p ack -e 40 -c 1 -i 56 -a 1 -x {2.0 0.0 19 ------- null}
- -t 0.22232 -s 2 -d 1 -p ack -e 40 -c 1 -i 56 -a 1 -x {2.0 0.0 19 ------- null}
h -t 0.22232 -s 2 -d 1 -p ack -e 40 -c 1 -i 56 -a 1 -x {2.0 0.0 -1 ------- null}
- -t 0.22232 -s 1 -d 2 -p tcp -e 1040 -c 1 -i 31 -a 1 -x {0.0 2.0 20 ------- null}
h -t 0.22232 -s 1 -d 2 -p tcp -e 1040 -c 1 -i 31 -a 1 -x {0.0 2.0 -1 ------- null}
r -t 0.22264 -s 2 -d 1 -p ack -e 40 -c 1 -i 56 -a 1 -x {2.0 0.0 19 ------- null}
+ -t 0.22264 -s 1 -d 0 -p ack -e 40 -c 1 -i 56 -a 1 -x {2.0 0.0 19 ------- null}
- -t 0.22264 -s 1 -d 0 -p ack -e 40 -c 1 -i 56 -a 1 -x {2.0 0.0 19 ------- null}
h -t 0.22264 -s 1 -d 0 -p ack -e 40 -c 1 -i 56 -a 1 -x {2.0 0.0 -1 ------- null}
r -t 0.22464 -s 1 -d 0 -p ack -e 40 -c 1 -i 53 -a 1 -x {2.0 0.0 18 ------- null}
+ -t 0.22464 -s 0 -d 1 -p tcp -e 1040 -c 1 -i 57 -a 1 -x {0.0 2.0 37 ------- null}
+ -t 0.22464 -s 0 -d 1 -p tcp -e 1040 -c 1 -i 58 -a 1 -x {0.0 2.0 38 ------- null}
d -t 0.22464 -s 0 -d 1 -p tcp -e 1040 -c 1 -i 58 -a 1 -x {0.0 2.0 38 ------- null}
- -t 0.22896 -s 0 -d 1 -p tcp -e 1040 -c 1 -i 36 -a 1 -x {0.0 2.0 23 ------- null}
h -t 0.22896 -s 0 -d 1 -p tcp -e 1040 -c 1 -i 36 -a 1 -x {0.0 2.0 -1 ------- null}
r -t 0.23064 -s 0 -d 1 -p tcp -e 1040 -c 1 -i 33 -a 1 -x {0.0 2.0 21 ------- null}
+ -t 0.23064 -s 1 -d 2 -p tcp -e 1040 -c 1 -i 33 -a 1 -x {0.0 2.0 21 ------- null}
r -t 0.23064 -s 1 -d 2 -p tcp -e 1040 -c 1 -i 31 -a 1 -x {0.0 2.0 20 ------- null}
+ -t 0.23064 -s 2 -d 1 -p ack -e 40 -c 1 -i 59 -a 1 -x {2.0 0.0 20 ------- null}
- -t 0.23064 -s 2 -d 1 -p ack -e 40 -c 1 -i 59 -a 1 -x {2.0 0.0 20 ------- null}
h -t 0.23064 -s 2 -d 1 -p ack -e 40 -c 1 -i 59 -a 1 -x {2.0 0.0 -1 ------- null}